                         Program Version 6.1.0  -  RELEASE   -
|  1> !xtb
|  2> !alpb(water)
|  3> !optts
|  4> !slowconv
|  5> !tightscf
|  6> !freq
|  7> !irc
|  8> %maxcore 2200
|  9> %pal
| 10>     nprocs 12
| 11> end
| 12>
| 13> %geom
| 14>     maxiter 1000
| 15>     cartfallback true
| 16>     calc_hess true
| 17>     recalc_hess 25
| 18> end
| 19>
| 20> %irc
| 21>     maxiter 100
| 22> end
| 23>
| 24> %output
| 25>     jsonpropfile true
| 26>     jsongbwfile true
| 27> end
| 28>
| 29> * xyz 0 1
| 30> C            -0.1723017513932700             0.0692790281079100             0.9415901451532001
| 31> C            -1.5114722700506400            -0.0272451766434100             1.2590019268918400
| 32> C            -2.4555446676647699            -0.2051917346218400             0.2568391953322000
| 33> C            -2.0546595961954099            -0.2876605050646100            -1.0680919471839001
| 34> C            -0.7162547120873900            -0.1972226518158500            -1.3951696427051301
| 35> C             0.2395008119508100            -0.0075437644831900            -0.3930635908946400
| 36> C             1.6583410285728200             0.1019782081889500            -0.7190975470132500
| 37> O             1.9716027320562299             0.2601184237578900            -2.0166149610835902
| 38> H             0.5648618405185100             0.1984806486595800             1.7189781601051799
| 39> H            -1.8252714597636499             0.0338136316755000             2.2895567599919202
| 40> H            -3.5015371551691699            -0.2817027574554700             0.5102675526882500
| 41> H            -2.7890276255413702            -0.4265994297671100            -1.8462635536545000
| 42> H            -0.3933154166801400            -0.2573885755436100            -2.4224441501523599
| 43> H             2.1132737072387400            -1.1430892974980500            -0.3760765204284900
| 44> H             2.2597980208995501             0.6492244708936100             0.0055850378915400
| 45> H             2.8970314500783201             0.5203427167914900            -2.1507932034921202
| 46> O             2.5463168128129299            -2.0954527576966000            -0.1541498006762300
| 47> O             3.4230200264564101            -3.6582109524867201             0.5032274020261200
| 48> H             2.2324742583455199            -2.6923655804885298            -0.8441071774256200
| 49> H             3.7237460875817900            -3.2935283991363700             1.3374348102850699
| 50> *
| 51>
| 52>                          ****END OF INPUT****
FINAL SINGLE POINT ENERGY       -32.138123089140
FINAL SINGLE POINT ENERGY       -32.138123089140
FINAL SINGLE POINT ENERGY       -32.137575616320
FINAL SINGLE POINT ENERGY       -32.137377839860
FINAL SINGLE POINT ENERGY       -32.137410036440
FINAL SINGLE POINT ENERGY       -32.137451499940
FINAL SINGLE POINT ENERGY       -32.137461060430
FINAL SINGLE POINT ENERGY       -32.137467374880
FINAL SINGLE POINT ENERGY       -32.137468310200
FINAL SINGLE POINT ENERGY       -32.137469068970
FINAL SINGLE POINT ENERGY       -32.137470178910
FINAL SINGLE POINT ENERGY       -32.137471818680
FINAL SINGLE POINT ENERGY       -32.137472326670
FINAL SINGLE POINT ENERGY       -32.137472311150
FINAL SINGLE POINT ENERGY       -32.137472615870
FINAL SINGLE POINT ENERGY       -32.137472747300
FINAL SINGLE POINT ENERGY       -32.137472719870
FINAL SINGLE POINT ENERGY       -32.137472884770
                    ***********************HURRAY********************

CARTESIAN COORDINATES (ANGSTROEM)
---------------------------------
  C    -0.194014    0.115001    0.931192
  C    -1.530247   -0.001388    1.248444
  C    -2.472516   -0.196230    0.245895
  C    -2.073876   -0.274611   -1.081747
  C    -0.739871   -0.163000   -1.412243
  C     0.218131    0.043905   -0.408345
  C     1.616288    0.181630   -0.734662
  O     1.961512    0.306661   -2.007380
  H     0.542869    0.255081    1.706453
  H    -1.845462    0.055442    2.278538
  H    -3.516446   -0.290214    0.501176
  H    -2.808766   -0.427456   -1.856462
  H    -0.416418   -0.221539   -2.439396
  H     2.057605   -1.213772   -0.388691
  H     2.260424    0.617217    0.025213
  H     2.896517    0.540522   -2.139702
  O     2.555625   -2.096506   -0.133035
  O     3.575825   -3.777965    0.492913
  H     2.216481   -2.797506   -0.697911
  H     3.906919   -3.395239    1.306358

FINAL SINGLE POINT ENERGY       -32.137472915120
FINAL SINGLE POINT ENERGY       -32.137472915120

DIPOLE MOMENT
-------------
                                X             Y             Z
Total Dipole Moment    :     -2.25800       4.14400      -1.06700
                        -----------------------------------------
Magnitude (a.u.)       :      4.83837
Magnitude (Debye)      :     12.29815

VIBRATIONAL FREQUENCIES
-----------------------

Scaling factor for frequencies =  1.000000000  (already applied!)

     0:       0.00 cm**-1
     1:       0.00 cm**-1
     2:       0.00 cm**-1
     3:       0.00 cm**-1
     4:       0.00 cm**-1
     5:       0.00 cm**-1
     6:    -226.88 cm**-1  ***imaginary mode***
     7:      23.33 cm**-1
     8:      34.98 cm**-1
     9:      99.88 cm**-1
    10:     104.82 cm**-1
    11:     126.83 cm**-1
    12:     172.21 cm**-1
    13:     202.14 cm**-1
    14:     221.73 cm**-1
    15:     266.21 cm**-1
    16:     358.29 cm**-1
    17:     374.70 cm**-1
    18:     423.08 cm**-1
    19:     440.62 cm**-1
    20:     520.83 cm**-1
    21:     533.82 cm**-1
    22:     564.35 cm**-1
    23:     583.91 cm**-1
    24:     601.85 cm**-1
    25:     652.46 cm**-1
    26:     706.32 cm**-1
    27:     754.22 cm**-1
    28:     818.27 cm**-1
    29:     857.61 cm**-1
    30:     899.39 cm**-1
    31:     903.99 cm**-1
    32:     927.34 cm**-1
    33:     931.10 cm**-1
    34:     980.34 cm**-1
    35:    1073.71 cm**-1
    36:    1106.17 cm**-1
    37:    1118.41 cm**-1
    38:    1174.71 cm**-1
    39:    1177.26 cm**-1
    40:    1200.86 cm**-1
    41:    1241.60 cm**-1
    42:    1277.56 cm**-1
    43:    1333.18 cm**-1
    44:    1340.14 cm**-1
    45:    1365.00 cm**-1
    46:    1431.23 cm**-1
    47:    1446.66 cm**-1
    48:    1559.03 cm**-1
    49:    1577.06 cm**-1
    50:    2202.47 cm**-1
    51:    3004.24 cm**-1
    52:    3090.31 cm**-1
    53:    3093.48 cm**-1
    54:    3099.54 cm**-1
    55:    3106.20 cm**-1
    56:    3111.02 cm**-1
    57:    3381.36 cm**-1
    58:    3582.76 cm**-1
    59:    3694.88 cm**-1

--------------------------
THERMOCHEMISTRY AT 298.15K
--------------------------

Temperature         ...   298.15 K
Pressure            ...     1.00 atm
Total Mass          ...   142.15 AMU
Quasi RRHO          ...     True
Cut-Off Frequency   ...     1.00 cm^-1

Throughout the following assumptions are being made:
  (1) The electronic state is orbitally nondegenerate
  (2) There are no thermally accessible electronically excited states
  (3) Hindered rotations indicated by low frequency modes are not
      treated as such but are treated as vibrations and this may
      cause some error
  (4) All equations used are the standard statistical mechanics
      equations for an ideal gas
  (5) All vibrations are strictly harmonic

freq.      23.33  E(vib)   ...       0.56
freq.      34.98  E(vib)   ...       0.54
freq.      99.88  E(vib)   ...       0.46
freq.     104.82  E(vib)   ...       0.46
freq.     126.83  E(vib)   ...       0.43
freq.     172.21  E(vib)   ...       0.38
freq.     202.14  E(vib)   ...       0.35
freq.     221.73  E(vib)   ...       0.33
freq.     266.21  E(vib)   ...       0.29
freq.     358.29  E(vib)   ...       0.22
freq.     374.70  E(vib)   ...       0.21
freq.     423.08  E(vib)   ...       0.18
freq.     440.62  E(vib)   ...       0.17
freq.     520.83  E(vib)   ...       0.13
freq.     533.82  E(vib)   ...       0.13
freq.     564.35  E(vib)   ...       0.11
freq.     583.91  E(vib)   ...       0.11
freq.     601.85  E(vib)   ...       0.10
freq.     652.46  E(vib)   ...       0.08
freq.     706.32  E(vib)   ...       0.07
freq.     754.22  E(vib)   ...       0.06
freq.     818.27  E(vib)   ...       0.05
freq.     857.61  E(vib)   ...       0.04
freq.     899.39  E(vib)   ...       0.03
freq.     903.99  E(vib)   ...       0.03
freq.     927.34  E(vib)   ...       0.03
freq.     931.10  E(vib)   ...       0.03
freq.     980.34  E(vib)   ...       0.02
freq.    1073.71  E(vib)   ...       0.02
freq.    1106.17  E(vib)   ...       0.02
freq.    1118.41  E(vib)   ...       0.01
freq.    1174.71  E(vib)   ...       0.01
freq.    1177.26  E(vib)   ...       0.01
freq.    1200.86  E(vib)   ...       0.01
freq.    1241.60  E(vib)   ...       0.01
freq.    1277.56  E(vib)   ...       0.01
freq.    1333.18  E(vib)   ...       0.01
freq.    1340.14  E(vib)   ...       0.01
freq.    1365.00  E(vib)   ...       0.01
freq.    1431.23  E(vib)   ...       0.00
freq.    1446.66  E(vib)   ...       0.00
freq.    1559.03  E(vib)   ...       0.00
freq.    1577.06  E(vib)   ...       0.00
freq.    2202.47  E(vib)   ...       0.00
freq.    3004.24  E(vib)   ...       0.00
freq.    3090.31  E(vib)   ...       0.00
freq.    3093.48  E(vib)   ...       0.00
freq.    3099.54  E(vib)   ...       0.00
freq.    3106.20  E(vib)   ...       0.00
freq.    3111.02  E(vib)   ...       0.00
freq.    3381.36  E(vib)   ...       0.00
freq.    3582.76  E(vib)   ...       0.00
freq.    3694.88  E(vib)   ...       0.00

------------
INNER ENERGY
------------

The inner energy is: U= E(el) + E(ZPE) + E(vib) + E(rot) + E(trans)
    E(el)   - is the total energy from the electronic structure calculation
              = E(kin-el) + E(nuc-el) + E(el-el) + E(nuc-nuc)
    E(ZPE)  - the the zero temperature vibrational energy from the frequency calculation
    E(vib)  - the the finite temperature correction to E(ZPE) due to population
              of excited vibrational states
    E(rot)  - is the rotational thermal energy
    E(trans)- is the translational thermal energy

Summary of contributions to the inner energy U:
Electronic energy                ...    -32.13747292 Eh
Zero point energy                ...      0.14779269 Eh      92.74 kcal/mol
Thermal vibrational correction   ...      0.00914297 Eh       5.74 kcal/mol
Thermal rotational correction    ...      0.00141627 Eh       0.89 kcal/mol
Thermal translational correction ...      0.00141627 Eh       0.89 kcal/mol
-----------------------------------------------------------------------
Total thermal energy                    -31.97770471 Eh

Summary of corrections to the electronic energy:
(perhaps to be used in another calculation)
Total thermal correction                  0.01197552 Eh       7.51 kcal/mol
Non-thermal (ZPE) correction              0.14779269 Eh      92.74 kcal/mol
-----------------------------------------------------------------------
Total correction                          0.15976820 Eh     100.26 kcal/mol

--------
ENTHALPY
--------

The enthalpy is H = U + kB*T
                kB is Boltzmann's constant
Total thermal energy              ...    -31.97770471 Eh
Thermal Enthalpy correction       ...      0.00094421 Eh       0.59 kcal/mol
-----------------------------------------------------------------------
Total Enthalpy                    ...    -31.97676050 Eh

WARNING (ORCA/SYM): The number of Z matrix atoms does not agree with
the number of centers in the basis set. The point group will therefore
be determined without considering basis set information.

Note: Only C1 symmetry has been detected, increase convergence thresholds
      if your molecule has a higher symmetry. Symmetry factor of 1.0 is
      used for the rotational entropy correction.

Note: Rotational entropy computed according to Herzberg
Infrared and Raman Spectra, Chapter V,1, Van Nostrand Reinhold, 1945
Point Group:  C1, Symmetry Number:   1
Rotational constants in cm-1:     0.058977     0.021392     0.018199

Vibrational entropy computed according to the QRRHO of S. Grimme
Chem.Eur.J. 2012 18 9955 using a reference frequency of 100.0 cm-1

-------
ENTROPY
-------

The entropy contributions are T*S = T*(S(el)+S(vib)+S(rot)+S(trans))
     S(el)   - electronic entropy
     S(vib)  - vibrational entropy
     S(rot)  - rotational entropy
     S(trans)- translational entropy
The entropies will be listed as multiplied by the temperature to get
units of energy

Electronic entropy                ...      0.00000000 Eh      0.00 kcal/mol
Vibrational entropy               ...      0.01635181 Eh     10.26 kcal/mol
Rotational entropy                ...      0.01455357 Eh      9.13 kcal/mol
Translational entropy             ...      0.01936940 Eh     12.15 kcal/mol
-----------------------------------------------------------------------
Final entropy term                ...      0.05027478 Eh     31.55 kcal/mol

In case the symmetry of your molecule has not been determined correctly
or in case you have a reason to use a different symmetry number we print
out the resulting rotational entropy values for sn=1,12:

 non-linear molecules -----------------------------------
|  sn= 1 | S(rot)=       0.01455357 Eh      9.13 kcal/mol|
|  sn= 2 | S(rot)=       0.01389911 Eh      8.72 kcal/mol|

                      ***********************HURRAY********************
                             ****ORCA TERMINATED NORMALLY****
TOTAL RUN TIME: 0 days 0 hours 0 minutes 24 seconds 470 msec
