                         Program Version 6.1.0  -  RELEASE   -
|  1> !xtb
|  2> !alpb(water)
|  3> !optts
|  4> !slowconv
|  5> !tightscf
|  6> !freq
|  7> !irc
|  8> %maxcore 2200
|  9> %pal
| 10>     nprocs 12
| 11> end
| 12>
| 13> %geom
| 14>     maxiter 1000
| 15>     cartfallback true
| 16>     calc_hess true
| 17>     recalc_hess 25
| 18> end
| 19>
| 20> %irc
| 21>     maxiter 100
| 22> end
| 23>
| 24> %output
| 25>     jsonpropfile true
| 26>     jsongbwfile true
| 27> end
| 28>
| 29> * xyz 0 1
| 30> C            -0.1406132296106300            -0.2032387250596200             1.4986155701861701
| 31> C            -1.5119421371186199            -0.2811458670052200             1.6420000949993401
| 32> C            -2.3387672997633202            -0.1051409346570700             0.5430157813111800
| 33> C            -1.7891140324979100             0.1452821230530100            -0.7067603229813600
| 34> C            -0.4198118637259400             0.2193954656026500            -0.8605567249466800
| 35> C             0.4205501801550400             0.0393430092004300             0.2423633331887700
| 36> C             1.8706932921892701             0.1192581425689400             0.0687096035143800
| 37> O             2.6235478542059099            -0.2927504771630400             1.1068508195063300
| 38> H             0.5118960526377000            -0.3410824572864100             2.3462033457517202
| 39> H            -1.9395751915630299            -0.4756705594642800             2.6133553451023501
| 40> H            -3.4101418585111198            -0.1601507699758400             0.6587808010424000
| 41> H            -2.4340267198721199             0.2845184271687000            -1.5605842553834599
| 42> H             0.0100364966403800             0.4232096008270600            -1.8291794840178199
| 43> H             2.0682202866646202             1.4539284553137599            -0.0308067956072600
| 44> H             2.2279583470766502            -0.1368313863116400            -0.9282491942455100
| 45> H             3.5563218549357400            -0.4131355617795000             0.8678013448612300
| 46> O             2.3012856888985000             2.5015364430051901            -0.1190504575441800
| 47> O             2.7580293213898002             4.2730685093689003            -0.5915714328911800
| 48> H             2.1450675508333301             2.8756401419680500             0.7572254384682600
| 49> H             2.8389771813000699             4.1345933457974997            -1.5370669324683000
| 50> *
| 51>
| 52>                          ****END OF INPUT****
FINAL SINGLE POINT ENERGY       -32.138405828800
FINAL SINGLE POINT ENERGY       -32.138405828800
FINAL SINGLE POINT ENERGY       -32.137793955160
FINAL SINGLE POINT ENERGY       -32.137537228560
FINAL SINGLE POINT ENERGY       -32.137509806930
FINAL SINGLE POINT ENERGY       -32.137507824900
FINAL SINGLE POINT ENERGY       -32.137538515140
FINAL SINGLE POINT ENERGY       -32.137549102940
FINAL SINGLE POINT ENERGY       -32.137549913340
FINAL SINGLE POINT ENERGY       -32.137550424170
FINAL SINGLE POINT ENERGY       -32.137550768120
                    ***********************HURRAY********************

CARTESIAN COORDINATES (ANGSTROEM)
---------------------------------
  C    -0.159303   -0.244007    1.514560
  C    -1.530129   -0.295515    1.654150
  C    -2.351207   -0.113681    0.549438
  C    -1.796447    0.118055   -0.703405
  C    -0.427707    0.167899   -0.857259
  C     0.410766   -0.020960    0.252142
  C     1.842134    0.014690    0.080204
  O     2.613003   -0.344816    1.095352
  H     0.490088   -0.383996    2.364121
  H    -1.965302   -0.473999    2.624905
  H    -3.423365   -0.148716    0.663730
  H    -2.439357    0.262231   -1.557551
  H     0.008379    0.358704   -1.825314
  H     2.013893    1.510809    0.020332
  H     2.221548   -0.106140   -0.931350
  H     3.551970   -0.444434    0.860604
  O     2.310807    2.499420   -0.140656
  O     2.906302    4.421546   -0.606388
  H     2.175991    2.982859    0.680255
  H     2.896530    4.300680   -1.556776

FINAL SINGLE POINT ENERGY       -32.137551021860
FINAL SINGLE POINT ENERGY       -32.137551021860

DIPOLE MOMENT
-------------
                                X             Y             Z
Total Dipole Moment    :     -1.39200      -4.61300       0.59900
                        -----------------------------------------
Magnitude (a.u.)       :      4.85554
Magnitude (Debye)      :     12.34179

VIBRATIONAL FREQUENCIES
-----------------------

Scaling factor for frequencies =  1.000000000  (already applied!)

     0:       0.00 cm**-1
     1:       0.00 cm**-1
     2:       0.00 cm**-1
     3:       0.00 cm**-1
     4:       0.00 cm**-1
     5:       0.00 cm**-1
     6:    -218.22 cm**-1  ***imaginary mode***
     7:      29.85 cm**-1
     8:      44.21 cm**-1
     9:      65.13 cm**-1
    10:     101.32 cm**-1
    11:     123.36 cm**-1
    12:     168.03 cm**-1
    13:     202.00 cm**-1
    14:     220.88 cm**-1
    15:     270.17 cm**-1
    16:     361.19 cm**-1
    17:     375.37 cm**-1
    18:     425.71 cm**-1
    19:     442.78 cm**-1
    20:     527.28 cm**-1
    21:     537.73 cm**-1
    22:     565.07 cm**-1
    23:     584.58 cm**-1
    24:     605.31 cm**-1
    25:     653.84 cm**-1
    26:     702.75 cm**-1
    27:     755.16 cm**-1
    28:     819.05 cm**-1
    29:     858.18 cm**-1
    30:     902.43 cm**-1
    31:     904.94 cm**-1
    32:     927.77 cm**-1
    33:     931.29 cm**-1
    34:     980.39 cm**-1
    35:    1073.54 cm**-1
    36:    1106.72 cm**-1
    37:    1118.53 cm**-1
    38:    1174.87 cm**-1
    39:    1177.64 cm**-1
    40:    1201.20 cm**-1
    41:    1240.48 cm**-1
    42:    1277.15 cm**-1
    43:    1333.33 cm**-1
    44:    1349.36 cm**-1
    45:    1365.64 cm**-1
    46:    1431.23 cm**-1
    47:    1446.66 cm**-1
    48:    1558.98 cm**-1
    49:    1577.04 cm**-1
    50:    2206.53 cm**-1
    51:    3005.38 cm**-1
    52:    3090.47 cm**-1
    53:    3093.39 cm**-1
    54:    3099.58 cm**-1
    55:    3106.16 cm**-1
    56:    3110.86 cm**-1
    57:    3379.09 cm**-1
    58:    3585.15 cm**-1
    59:    3691.81 cm**-1

--------------------------
THERMOCHEMISTRY AT 298.15K
--------------------------

Temperature         ...   298.15 K
Pressure            ...     1.00 atm
Total Mass          ...   142.15 AMU
Quasi RRHO          ...     True
Cut-Off Frequency   ...     1.00 cm^-1

Throughout the following assumptions are being made:
  (1) The electronic state is orbitally nondegenerate
  (2) There are no thermally accessible electronically excited states
  (3) Hindered rotations indicated by low frequency modes are not
      treated as such but are treated as vibrations and this may
      cause some error
  (4) All equations used are the standard statistical mechanics
      equations for an ideal gas
  (5) All vibrations are strictly harmonic

freq.      29.85  E(vib)   ...       0.55
freq.      44.21  E(vib)   ...       0.53
freq.      65.13  E(vib)   ...       0.50
freq.     101.32  E(vib)   ...       0.46
freq.     123.36  E(vib)   ...       0.43
freq.     168.03  E(vib)   ...       0.38
freq.     202.00  E(vib)   ...       0.35
freq.     220.88  E(vib)   ...       0.33
freq.     270.17  E(vib)   ...       0.29
freq.     361.19  E(vib)   ...       0.22
freq.     375.37  E(vib)   ...       0.21
freq.     425.71  E(vib)   ...       0.18
freq.     442.78  E(vib)   ...       0.17
freq.     527.28  E(vib)   ...       0.13
freq.     537.73  E(vib)   ...       0.12
freq.     565.07  E(vib)   ...       0.11
freq.     584.58  E(vib)   ...       0.11
freq.     605.31  E(vib)   ...       0.10
freq.     653.84  E(vib)   ...       0.08
freq.     702.75  E(vib)   ...       0.07
freq.     755.16  E(vib)   ...       0.06
freq.     819.05  E(vib)   ...       0.05
freq.     858.18  E(vib)   ...       0.04
freq.     902.43  E(vib)   ...       0.03
freq.     904.94  E(vib)   ...       0.03
freq.     927.77  E(vib)   ...       0.03
freq.     931.29  E(vib)   ...       0.03
freq.     980.39  E(vib)   ...       0.02
freq.    1073.54  E(vib)   ...       0.02
freq.    1106.72  E(vib)   ...       0.02
freq.    1118.53  E(vib)   ...       0.01
freq.    1174.87  E(vib)   ...       0.01
freq.    1177.64  E(vib)   ...       0.01
freq.    1201.20  E(vib)   ...       0.01
freq.    1240.48  E(vib)   ...       0.01
freq.    1277.15  E(vib)   ...       0.01
freq.    1333.33  E(vib)   ...       0.01
freq.    1349.36  E(vib)   ...       0.01
freq.    1365.64  E(vib)   ...       0.01
freq.    1431.23  E(vib)   ...       0.00
freq.    1446.66  E(vib)   ...       0.00
freq.    1558.98  E(vib)   ...       0.00
freq.    1577.04  E(vib)   ...       0.00
freq.    2206.53  E(vib)   ...       0.00
freq.    3005.38  E(vib)   ...       0.00
freq.    3090.47  E(vib)   ...       0.00
freq.    3093.39  E(vib)   ...       0.00
freq.    3099.58  E(vib)   ...       0.00
freq.    3106.16  E(vib)   ...       0.00
freq.    3110.86  E(vib)   ...       0.00
freq.    3379.09  E(vib)   ...       0.00
freq.    3585.15  E(vib)   ...       0.00
freq.    3691.81  E(vib)   ...       0.00

------------
INNER ENERGY
------------

The inner energy is: U= E(el) + E(ZPE) + E(vib) + E(rot) + E(trans)
    E(el)   - is the total energy from the electronic structure calculation
              = E(kin-el) + E(nuc-el) + E(el-el) + E(nuc-nuc)
    E(ZPE)  - the the zero temperature vibrational energy from the frequency calculation
    E(vib)  - the the finite temperature correction to E(ZPE) due to population
              of excited vibrational states
    E(rot)  - is the rotational thermal energy
    E(trans)- is the translational thermal energy

Summary of contributions to the inner energy U:
Electronic energy                ...    -32.13755102 Eh
Zero point energy                ...      0.14782261 Eh      92.76 kcal/mol
Thermal vibrational correction   ...      0.00917478 Eh       5.76 kcal/mol
Thermal rotational correction    ...      0.00141627 Eh       0.89 kcal/mol
Thermal translational correction ...      0.00141627 Eh       0.89 kcal/mol
-----------------------------------------------------------------------
Total thermal energy                    -31.97772109 Eh

Summary of corrections to the electronic energy:
(perhaps to be used in another calculation)
Total thermal correction                  0.01200732 Eh       7.53 kcal/mol
Non-thermal (ZPE) correction              0.14782261 Eh      92.76 kcal/mol
-----------------------------------------------------------------------
Total correction                          0.15982993 Eh     100.29 kcal/mol

--------
ENTHALPY
--------

The enthalpy is H = U + kB*T
                kB is Boltzmann's constant
Total thermal energy              ...    -31.97772109 Eh
Thermal Enthalpy correction       ...      0.00094421 Eh       0.59 kcal/mol
-----------------------------------------------------------------------
Total Enthalpy                    ...    -31.97677688 Eh

WARNING (ORCA/SYM): The number of Z matrix atoms does not agree with
the number of centers in the basis set. The point group will therefore
be determined without considering basis set information.

Note: Only C1 symmetry has been detected, increase convergence thresholds
      if your molecule has a higher symmetry. Symmetry factor of 1.0 is
      used for the rotational entropy correction.

Note: Rotational entropy computed according to Herzberg
Infrared and Raman Spectra, Chapter V,1, Van Nostrand Reinhold, 1945
Point Group:  C1, Symmetry Number:   1
Rotational constants in cm-1:     0.058940     0.021440     0.018137

Vibrational entropy computed according to the QRRHO of S. Grimme
Chem.Eur.J. 2012 18 9955 using a reference frequency of 100.0 cm-1

-------
ENTROPY
-------

The entropy contributions are T*S = T*(S(el)+S(vib)+S(rot)+S(trans))
     S(el)   - electronic entropy
     S(vib)  - vibrational entropy
     S(rot)  - rotational entropy
     S(trans)- translational entropy
The entropies will be listed as multiplied by the temperature to get
units of energy

Electronic entropy                ...      0.00000000 Eh      0.00 kcal/mol
Vibrational entropy               ...      0.01628818 Eh     10.22 kcal/mol
Rotational entropy                ...      0.01455441 Eh      9.13 kcal/mol
Translational entropy             ...      0.01936940 Eh     12.15 kcal/mol
-----------------------------------------------------------------------
Final entropy term                ...      0.05021199 Eh     31.51 kcal/mol

In case the symmetry of your molecule has not been determined correctly
or in case you have a reason to use a different symmetry number we print
out the resulting rotational entropy values for sn=1,12:

 non-linear molecules -----------------------------------
|  sn= 1 | S(rot)=       0.01455441 Eh      9.13 kcal/mol|
|  sn= 2 | S(rot)=       0.01389995 Eh      8.72 kcal/mol|

                      ***********************HURRAY********************
                             ****ORCA TERMINATED NORMALLY****
TOTAL RUN TIME: 0 days 0 hours 0 minutes 23 seconds 129 msec
